********************************************************************************
*                       GENERAL UTILITY LATTICE PROGRAM                        *
*                                 Julian Gale                                  *
*                      Nanochemistry Research Institute                        *
*                           Department of Chemistry                            *
*                    Curtin University, Western Australia                      *
********************************************************************************
* Version = 3.5.5 * Last modified =  14th February 2011                        *
********************************************************************************
*  optimise     - perform optimisation run                                     *
*  conp         - constant pressure calculation                                *
*  nosymmetry   - turn off symmetry after initial structure generation         *
*  conjugate    - use conjugate gradients minimiser                            *
********************************************************************************
* ASE calculation                                                              *
********************************************************************************


  Job Started  at 15:22.10 29th October    2025                               

  Number of CPUs =     1


  Total number of configurations input =   1

********************************************************************************
*  Input for Configuration =   1                                               *
********************************************************************************

  Formula = Mg4Al8O16                                                   

  Number of irreducible atoms/shells =      28


  Total number atoms/shells =      28

  Dimensionality = 3               :  Bulk   



  Cartesian lattice vectors (Angstroms) :

        8.442198    0.000000    0.000000
        0.000003    9.347699    0.000000
        0.856290    0.000003    2.548659

  Cell parameters (Angstroms/Degrees):

  a =       8.4422    alpha =  89.9999
  b =       9.3477    beta  =  71.4289
  c =       2.6887    gamma =  90.0000

  Initial cell volume =         201.127781 Angs**3

  Temperature of configuration =  0.000     K 

  Pressure of configuration =       100.000 GPa 

  Fractional coordinates of asymmetric unit :

--------------------------------------------------------------------------------
   No.  Atomic       x           y          z         Charge      Occupancy
        Label      (Frac)      (Frac)     (Frac)        (e)         (Frac)  
--------------------------------------------------------------------------------
      1 Mg    c    0.754709    0.212348    0.968001     2.00000    1.000000    
      2 Mg    c    0.751243 *  0.712349 *  0.471467 *   2.00000    1.000000    
      3 Mg    c    0.254709 *  0.002016 *  0.468001 *   2.00000    1.000000    
      4 Mg    c    0.251243 *  0.502017 *  0.971465 *   2.00000    1.000000    
      5 Al    c    0.426132 *  0.241372 *  0.296576 *   3.00000    1.000000    
      6 Al    c    0.081110 *  0.243738 *  0.141598 *   3.00000    1.000000    
      7 Al    c    0.424842 *  0.743737 *  0.297868 *   3.00000    1.000000    
      8 Al    c    0.581109 *  0.970628 *  0.641599 *   3.00000    1.000000    
      9 Al    c    0.079820 *  0.741372 *  0.142891 *   3.00000    1.000000    
     10 Al    c    0.926132 *  0.972993 *  0.796576 *   3.00000    1.000000    
     11 Al    c    0.579820 *  0.472993 *  0.642889 *   3.00000    1.000000    
     12 Al    c    0.924842 *  0.470628 *  0.797868 *   3.00000    1.000000    
     13 O     c    0.583844 *  0.284272 *  0.638861 *  -2.00000    1.000000    
     14 O     c    0.627746 *  0.838388 *  0.094963 *  -2.00000    1.000000    
     15 O     c    0.083843 *  0.930093 *  0.138865 *  -2.00000    1.000000    
     16 O     c    0.216408 *  0.685873 *  0.506302 *  -2.00000    1.000000    
     17 O     c    0.127747 *  0.375977 *  0.594961 *  -2.00000    1.000000    
     18 O     c    0.422109 *  0.430093 *  0.300600 *  -2.00000    1.000000    
     19 O     c    0.016770 *  0.141114 *  0.705938 *  -2.00000    1.000000    
     20 O     c    0.289543 *  0.185873 *  0.933166 *  -2.00000    1.000000    
     21 O     c    0.989181 *  0.573252 *  0.233528 *  -2.00000    1.000000    
     22 O     c    0.789543 *  0.028492 *  0.433164 *  -2.00000    1.000000    
     23 O     c    0.878206 *  0.338389 *  0.344501 *  -2.00000    1.000000    
     24 O     c    0.922108 *  0.784272 *  0.800602 *  -2.00000    1.000000    
     25 O     c    0.516771 *  0.073251 *  0.205938 *  -2.00000    1.000000    
     26 O     c    0.716409 *  0.528492 *  0.006299 *  -2.00000    1.000000    
     27 O     c    0.489181 *  0.641113 *  0.733529 *  -2.00000    1.000000    
     28 O     c    0.378205 *  0.875977 *  0.844505 *  -2.00000    1.000000    
--------------------------------------------------------------------------------



********************************************************************************
*  General input information                                                   *
********************************************************************************

  Species output for all configurations : 

--------------------------------------------------------------------------------
  Species    Type    Atomic    Atomic    Charge       Radii (Angs)     Library
                     Number     Mass       (e)     Cova   Ionic  VDW   Symbol
--------------------------------------------------------------------------------
    Mg       Core       12      24.31   2.000000   1.100  0.000  1.640          
    Al       Core       13      26.98   3.000000   1.350  0.000  2.050          
    O        Core        8      16.00  -2.000000   0.730  0.000  1.360          
--------------------------------------------------------------------------------


  Lattice summation method               =    Ewald          (3-D)
                                         =    Parry          (2-D)
                                         =    Saunders et al (1-D)
  Accuracy factor for lattice sums       =   12.000


  Time limit = Infinity

  Maximum range for interatomic potentials =    100000.000000 Angstroms

  General interatomic potentials :

--------------------------------------------------------------------------------
Atom  Types   Potential         A         B         C         D     Cutoffs(Ang)
  1     2                                                            Min    Max 
--------------------------------------------------------------------------------
O    c Mg   c Buckingham    0.143E+04 0.295      0.00     0.00      0.000 10.000
O    c Al   c Buckingham    0.111E+04 0.312      0.00     0.00      0.000 10.000
O    c O    c Buckingham    0.202E+04 0.267      0.00     0.00      0.000 10.000
--------------------------------------------------------------------------------

********************************************************************************
*  Output for configuration   1                                                *
********************************************************************************


  Components of enthalpy : 

--------------------------------------------------------------------------------
  Interatomic potentials     =         218.54998268 eV
  Monopole - monopole (real) =        -506.05118003 eV
  Monopole - monopole (recip)=        -493.09404620 eV
  Monopole - monopole (total)=        -999.14522623 eV
  Pressure*volume            =         125.53311803 eV
--------------------------------------------------------------------------------
  Total lattice enthalpy     =        -655.06212553 eV
--------------------------------------------------------------------------------
  Total lattice enthalpy     =          -63203.4816 kJ/(mole unit cells)
--------------------------------------------------------------------------------


  Number of variables =     87

  Maximum number of calculations  =           850
  Maximum Hessian update interval =            10
  Maximum step size               =   1.000000000
  Maximum parameter tolerance     =   0.000010000
  Maximum function  tolerance     =   0.000010000
  Maximum gradient  tolerance     =   0.001000000
  Maximum gradient  component     =   0.010000000

  Cell parameters to be optimised using strains

  Conjugate gradient optimiser to be used

  Minimiser to switch to RFO
  When gradient norm is less than     0.010000

  Start of bulk optimisation :

  Cycle:      0 Energy:      -655.062126  Gnorm:      0.007006  CPU:    0.013
  ** Hessian has required structure
  Cycle:      1 Energy:      -655.062187  Gnorm:      0.000037  CPU:    0.043
  ** Hessian has required structure


  **** Optimisation achieved ****


  Final enthalpy =    -655.06218694 eV
  Final Gnorm  =       0.00000092

  Components of enthalpy : 

--------------------------------------------------------------------------------
  Interatomic potentials     =         218.71707203 eV
  Monopole - monopole (real) =        -506.12335874 eV
  Monopole - monopole (recip)=        -493.14794305 eV
  Monopole - monopole (total)=        -999.27130179 eV
  Pressure*volume            =         125.49204282 eV
--------------------------------------------------------------------------------
  Total lattice enthalpy     =        -655.06218694 eV
--------------------------------------------------------------------------------
  Total lattice enthalpy     =          -63203.4875 kJ/(mole unit cells)
--------------------------------------------------------------------------------

  Final fractional coordinates of atoms :

--------------------------------------------------------------------------------
   No.  Atomic        x           y          z          Radius
        Label       (Frac)      (Frac)     (Frac)       (Angs) 
--------------------------------------------------------------------------------
     1  Mg    c     0.754709    0.212348    0.968001    0.000000
     2  Mg    c     0.751236    0.712348    0.471474    0.000000
     3  Mg    c     0.254709    0.001957    0.468001    0.000000
     4  Mg    c     0.251236    0.501957    0.971474    0.000000
     5  Al    c     0.426134    0.241336    0.296576    0.000000
     6  Al    c     0.081110    0.243686    0.141600    0.000000
     7  Al    c     0.424835    0.743686    0.297875    0.000000
     8  Al    c     0.581110    0.970619    0.641600    0.000000
     9  Al    c     0.079812    0.741336    0.142898    0.000000
    10  Al    c     0.926134    0.972969    0.796576    0.000000
    11  Al    c     0.579812    0.472969    0.642898    0.000000
    12  Al    c     0.924835    0.470619    0.797875    0.000000
    13  O     c     0.583852    0.284263    0.638858    0.000000
    14  O     c     0.627723    0.838349    0.094987    0.000000
    15  O     c     0.083852    0.930042    0.138858    0.000000
    16  O     c     0.216401    0.685859    0.506309    0.000000
    17  O     c     0.127723    0.375957    0.594987    0.000000
    18  O     c     0.422093    0.430042    0.300617    0.000000
    19  O     c     0.016791    0.141068    0.705919    0.000000
    20  O     c     0.289544    0.185859    0.933166    0.000000
    21  O     c     0.989154    0.573237    0.233556    0.000000
    22  O     c     0.789544    0.028446    0.433166    0.000000
    23  O     c     0.878222    0.338349    0.344488    0.000000
    24  O     c     0.922093    0.784263    0.800617    0.000000
    25  O     c     0.516791    0.073237    0.205919    0.000000
    26  O     c     0.716401    0.528446    0.006309    0.000000
    27  O     c     0.489154    0.641068    0.733556    0.000000
    28  O     c     0.378222    0.875957    0.844488    0.000000
--------------------------------------------------------------------------------

  Final Cartesian lattice vectors (Angstroms) :

        8.441695   -0.000001   -0.000156
        0.000002    9.346156   -0.000006
        0.856192    0.000001    2.548382


  Final cell parameters and derivatives :

--------------------------------------------------------------------------------
       a            8.441695 Angstrom     dE/de1(xx)     0.000029 eV/strain
       b            9.346156 Angstrom     dE/de2(yy)     0.000036 eV/strain
       c            2.688367 Angstrom     dE/de3(zz)     0.000037 eV/strain
       alpha       90.000000 Degrees      dE/de4(yz)    -0.000003 eV/strain
       beta        71.430006 Degrees      dE/de5(xz)     0.000003 eV/strain
       gamma       90.000000 Degrees      dE/de6(xy)    -0.000001 eV/strain
--------------------------------------------------------------------------------

  Primitive cell volume =           201.061971 Angs**3

  Density of cell =      4.700017 g/cm**3

  Non-primitive cell volume =           201.061971 Angs**3


  Final internal derivatives :

--------------------------------------------------------------------------------
   No.  Atomic          a             b             c           Radius
        Label          (eV)          (eV)          (eV)        (eV/Angs)
--------------------------------------------------------------------------------
      1 Mg    c       0.000000      0.000000      0.000000      0.000000
      2 Mg    c       0.000000     -0.000006      0.000000      0.000000
      3 Mg    c       0.000000      0.000006      0.000000      0.000000
      4 Mg    c       0.000000      0.000006      0.000000      0.000000
      5 Al    c      -0.000004     -0.000016      0.000000      0.000000
      6 Al    c       0.000005     -0.000002      0.000000      0.000000
      7 Al    c      -0.000005     -0.000002      0.000000      0.000000
      8 Al    c       0.000004      0.000003      0.000000      0.000000
      9 Al    c       0.000003     -0.000017      0.000000      0.000000
     10 Al    c      -0.000004      0.000016      0.000000      0.000000
     11 Al    c       0.000003      0.000017      0.000000      0.000000
     12 Al    c      -0.000005      0.000003      0.000000      0.000000
     13 O     c      -0.000001     -0.000014      0.000000      0.000000
     14 O     c       0.000000      0.000005      0.000001      0.000000
     15 O     c      -0.000001      0.000014      0.000000      0.000000
     16 O     c       0.000002      0.000006      0.000000      0.000000
     17 O     c       0.000000     -0.000006      0.000001      0.000000
     18 O     c       0.000001      0.000014      0.000000      0.000000
     19 O     c       0.000005      0.000009      0.000000      0.000000
     20 O     c      -0.000003      0.000006      0.000000      0.000000
     21 O     c      -0.000005     -0.000009      0.000000      0.000000
     22 O     c      -0.000002     -0.000006      0.000000      0.000000
     23 O     c       0.000000      0.000006     -0.000001      0.000000
     24 O     c       0.000001     -0.000014      0.000000      0.000000
     25 O     c       0.000006     -0.000010      0.000000      0.000000
     26 O     c       0.000003     -0.000006      0.000000      0.000000
     27 O     c      -0.000005      0.000008      0.000000      0.000000
     28 O     c       0.000000     -0.000005     -0.000001      0.000000
--------------------------------------------------------------------------------
  Maximum abs         0.000006      0.000017      0.000001      0.000000
--------------------------------------------------------------------------------


  Time to end of optimisation =       0.0703 seconds


  Peak dynamic memory used =       0.68 MB 


  Timing analysis for GULP :

--------------------------------------------------------------------------------
  Task / Subroutine                                          Time (Seconds)
--------------------------------------------------------------------------------
  Calculation of reciprocal space energy and derivatives          0.0021
  Calculation of real space energy and derivatives                0.0630
--------------------------------------------------------------------------------
  Total CPU time                                                  0.0703
--------------------------------------------------------------------------------


  Job Finished at 15:22.10 29th October    2025                               

